#                                                           
#                                                           
# Y88b    /   e           e    e      888~~\    ,88~-_      
#  Y88b  /   d8b         d8b  d8b     888   |  d888   \     
#   Y88b/   /Y88b       d888bdY88b    888 _/  88888    |    
#    Y8Y   /  Y88b     / Y88Y Y888b   888  \  88888    |    
#     Y   /____Y88b   /   YY   Y888b  888   |  Y888   /     
#    /   /      Y88b /          Y888b 888__/    `88_-~      
#                                                           
#                                                           
#              Version 4.0.2 Revision 5161                  
#                       MPI Build                           
#               http://www.yambo-code.org                   
#
# BSK|Identifier              :3799
#    |Dimension               :576
#    |Bands                   :3 - 6
#    |Exchange           [res]: yes
#    |Correlation        [res]: yes
#    |Kernel`s coupling       : no
#    |Exchange           [cpl]: no
#    |Correlation        [cpl]: no
#    |W interaction is bare   : no
#    |ALDA kernel in R-space  : no
#    |RL vectors    [exchange]:11
#    |RL vectors [correlation]:1
#    |E/h energy range    [ev]:-1.000000 - -1.000000
#    |Coupling range     [o/o]: 100.0000 -  100.0000
#  W |Interaction is diagonal : no
#    |Matrix size             :37
#    |Bands                   :1 - 30
#    |e/h energy range    [ev]:-1.000000 - -1.000000
#    |Poles              [o/o]: 100.0000
#    |Rl vectors in the sum   :651
#    |[r,Vnl] included        : yes
#    |Field direction         : 0.000000 0.1000E-4  0.000000
#    |Coulomb Cutoff          :none
#    |xc-Kernel               :none
# RIM|RL components      [col]:0
#    |Random points      [col]:0
#
   CRYSTAL
   PRIMVEC
    32.44356   0.00000   0.00000
   -16.22178  28.09694   0.00000
    0.000000  0.000000  6.371057
   PRIMCOORD
     339     1
   -1   7.48697  12.96782   3.64060
       5   0.00000   0.00000   3.18553
       5  -1.24783   2.16130   3.18553
       5  -2.49566   4.32261   3.18553
       5  -3.74349   6.48391   3.18553
       5  -4.99132   8.64521   3.18553
       5  -6.23915  10.80652   3.18553
       5  -7.48697  12.96782   3.18553
       5  -8.73480  15.12912   3.18553
       5  -9.98263  17.29043   3.18553
       5 -11.23046  19.45173   3.18553
       5 -12.47829  21.61303   3.18553
       5 -13.72612  23.77434   3.18553
       5 -14.97395  25.93564   3.18553
       5   2.49566   0.00000   3.18553
       5   1.24783   2.16130   3.18553
       5   0.00000   4.32261   3.18553
       5  -1.24783   6.48391   3.18553
       5  -2.49566   8.64521   3.18553
       5  -3.74349  10.80652   3.18553
       5  -4.99132  12.96782   3.18553
       5  -6.23915  15.12912   3.18553
       5  -7.48697  17.29043   3.18553
       5  -8.73480  19.45173   3.18553
       5  -9.98263  21.61303   3.18553
       5 -11.23046  23.77434   3.18553
       5 -12.47829  25.93564   3.18553
       5   4.99132   0.00000   3.18553
       5   3.74349   2.16130   3.18553
       5   2.49566   4.32261   3.18553
       5   1.24783   6.48391   3.18553
       5   0.00000   8.64521   3.18553
       5  -1.24783  10.80652   3.18553
       5  -2.49566  12.96782   3.18553
       5  -3.74349  15.12912   3.18553
       5  -4.99132  17.29043   3.18553
       5  -6.23915  19.45173   3.18553
       5  -7.48697  21.61303   3.18553
       5  -8.73480  23.77434   3.18553
       5  -9.98263  25.93564   3.18553
       5   7.48697   0.00000   3.18553
       5   6.23915   2.16130   3.18553
       5   4.99132   4.32261   3.18553
       5   3.74349   6.48391   3.18553
       5   2.49566   8.64521   3.18553
       5   1.24783  10.80652   3.18553
       5   0.00000  12.96782   3.18553
       5  -1.24783  15.12912   3.18553
       5  -2.49566  17.29043   3.18553
       5  -3.74349  19.45173   3.18553
       5  -4.99132  21.61303   3.18553
       5  -6.23915  23.77434   3.18553
       5  -7.48697  25.93564   3.18553
       5   9.98263   0.00000   3.18553
       5   8.73480   2.16130   3.18553
       5   7.48697   4.32261   3.18553
       5   6.23915   6.48391   3.18553
       5   4.99132   8.64521   3.18553
       5   3.74349  10.80652   3.18553
       5   2.49566  12.96782   3.18553
       5   1.24783  15.12912   3.18553
       5   0.00000  17.29043   3.18553
       5  -1.24783  19.45173   3.18553
       5  -2.49566  21.61303   3.18553
       5  -3.74349  23.77434   3.18553
       5  -4.99132  25.93564   3.18553
       5  12.47829   0.00000   3.18553
       5  11.23046   2.16130   3.18553
       5   9.98263   4.32261   3.18553
       5   8.73480   6.48391   3.18553
       5   7.48697   8.64521   3.18553
       5   6.23915  10.80652   3.18553
       5   4.99132  12.96782   3.18553
       5   3.74349  15.12912   3.18553
       5   2.49566  17.29043   3.18553
       5   1.24783  19.45173   3.18553
       5   0.00000  21.61303   3.18553
       5  -1.24783  23.77434   3.18553
       5  -2.49566  25.93564   3.18553
       5  14.97395   0.00000   3.18553
       5  13.72612   2.16130   3.18553
       5  12.47829   4.32261   3.18553
       5  11.23046   6.48391   3.18553
       5   9.98263   8.64521   3.18553
       5   8.73480  10.80652   3.18553
       5   7.48697  12.96782   3.18553
       5   6.23915  15.12912   3.18553
       5   4.99132  17.29043   3.18553
       5   3.74349  19.45173   3.18553
       5   2.49566  21.61303   3.18553
       5   1.24783  23.77434   3.18553
       5   0.00000  25.93564   3.18553
       5  17.46961   0.00000   3.18553
       5  16.22178   2.16130   3.18553
       5  14.97395   4.32261   3.18553
       5  13.72612   6.48391   3.18553
       5  12.47829   8.64521   3.18553
       5  11.23046  10.80652   3.18553
       5   9.98263  12.96782   3.18553
       5   8.73480  15.12912   3.18553
       5   7.48697  17.29043   3.18553
       5   6.23914  19.45173   3.18553
       5   4.99132  21.61303   3.18553
       5   3.74349  23.77434   3.18553
       5   2.49566  25.93564   3.18553
       5  19.96527   0.00000   3.18553
       5  18.71744   2.16130   3.18553
       5  17.46961   4.32261   3.18553
       5  16.22178   6.48391   3.18553
       5  14.97395   8.64521   3.18553
       5  13.72612  10.80652   3.18553
       5  12.47829  12.96782   3.18553
       5  11.23046  15.12912   3.18553
       5   9.98263  17.29043   3.18553
       5   8.73480  19.45173   3.18553
       5   7.48697  21.61303   3.18553
       5   6.23915  23.77434   3.18553
       5   4.99132  25.93564   3.18553
       5  22.46092   0.00000   3.18553
       5  21.21309   2.16130   3.18553
       5  19.96527   4.32261   3.18553
       5  18.71744   6.48391   3.18553
       5  17.46961   8.64521   3.18553
       5  16.22178  10.80652   3.18553
       5  14.97395  12.96782   3.18553
       5  13.72612  15.12912   3.18553
       5  12.47829  17.29043   3.18553
       5  11.23046  19.45173   3.18553
       5   9.98263  21.61303   3.18553
       5   8.73480  23.77434   3.18553
       5   7.48697  25.93564   3.18553
       5  24.95658   0.00000   3.18553
       5  23.70875   2.16130   3.18553
       5  22.46092   4.32261   3.18553
       5  21.21309   6.48391   3.18553
       5  19.96527   8.64521   3.18553
       5  18.71744  10.80652   3.18553
       5  17.46961  12.96782   3.18553
       5  16.22178  15.12912   3.18553
       5  14.97395  17.29043   3.18553
       5  13.72612  19.45173   3.18553
       5  12.47829  21.61303   3.18553
       5  11.23046  23.77434   3.18553
       5   9.98263  25.93564   3.18553
       5  27.45224   0.00000   3.18553
       5  26.20441   2.16130   3.18553
       5  24.95658   4.32261   3.18553
       5  23.70875   6.48391   3.18553
       5  22.46092   8.64521   3.18553
       5  21.21309  10.80652   3.18553
       5  19.96527  12.96782   3.18553
       5  18.71744  15.12912   3.18553
       5  17.46961  17.29043   3.18553
       5  16.22178  19.45173   3.18553
       5  14.97395  21.61303   3.18553
       5  13.72612  23.77434   3.18553
       5  12.47829  25.93564   3.18553
       5  29.94790   0.00000   3.18553
       5  28.70007   2.16130   3.18553
       5  27.45224   4.32261   3.18553
       5  26.20441   6.48391   3.18553
       5  24.95658   8.64521   3.18553
       5  23.70875  10.80652   3.18553
       5  22.46092  12.96782   3.18553
       5  21.21310  15.12912   3.18553
       5  19.96527  17.29043   3.18553
       5  18.71744  19.45173   3.18553
       5  17.46961  21.61303   3.18553
       5  16.22178  23.77434   3.18553
       5  14.97395  25.93564   3.18553
       7  -0.00000   1.44087   3.18553
       7  -1.24783   3.60217   3.18553
       7  -2.49566   5.76348   3.18553
       7  -3.74349   7.92478   3.18553
       7  -4.99132  10.08608   3.18553
       7  -6.23915  12.24739   3.18553
       7  -7.48697  14.40869   3.18553
       7  -8.73480  16.56999   3.18553
       7  -9.98263  18.73129   3.18553
       7 -11.23046  20.89260   3.18553
       7 -12.47829  23.05390   3.18553
       7 -13.72612  25.21520   3.18553
       7 -14.97395  27.37651   3.18553
       7   2.49566   1.44087   3.18553
       7   1.24783   3.60217   3.18553
       7   0.00000   5.76348   3.18553
       7  -1.24783   7.92478   3.18553
       7  -2.49566  10.08608   3.18553
       7  -3.74349  12.24739   3.18553
       7  -4.99132  14.40869   3.18553
       7  -6.23915  16.56999   3.18553
       7  -7.48697  18.73129   3.18553
       7  -8.73480  20.89260   3.18553
       7  -9.98263  23.05390   3.18553
       7 -11.23046  25.21520   3.18553
       7 -12.47829  27.37651   3.18553
       7   4.99132   1.44087   3.18553
       7   3.74349   3.60217   3.18553
       7   2.49566   5.76348   3.18553
       7   1.24783   7.92478   3.18553
       7   0.00000  10.08608   3.18553
       7  -1.24783  12.24739   3.18553
       7  -2.49566  14.40869   3.18553
       7  -3.74349  16.56999   3.18553
       7  -4.99132  18.73129   3.18553
       7  -6.23915  20.89260   3.18553
       7  -7.48697  23.05390   3.18553
       7  -8.73480  25.21520   3.18553
       7  -9.98263  27.37651   3.18553
       7   7.48697   1.44087   3.18553
       7   6.23915   3.60217   3.18553
       7   4.99132   5.76348   3.18553
       7   3.74349   7.92478   3.18553
       7   2.49566  10.08608   3.18553
       7   1.24783  12.24739   3.18553
       7   0.00000  14.40869   3.18553
       7  -1.24783  16.56999   3.18553
       7  -2.49566  18.73129   3.18553
       7  -3.74349  20.89260   3.18553
       7  -4.99132  23.05390   3.18553
       7  -6.23915  25.21520   3.18553
       7  -7.48697  27.37651   3.18553
       7   9.98263   1.44087   3.18553
       7   8.73480   3.60217   3.18553
       7   7.48697   5.76348   3.18553
       7   6.23915   7.92478   3.18553
       7   4.99132  10.08608   3.18553
       7   3.74349  12.24739   3.18553
       7   2.49566  14.40869   3.18553
       7   1.24783  16.56999   3.18553
       7   0.00000  18.73129   3.18553
       7  -1.24783  20.89260   3.18553
       7  -2.49566  23.05390   3.18553
       7  -3.74349  25.21520   3.18553
       7  -4.99132  27.37651   3.18553
       7  12.47829   1.44087   3.18553
       7  11.23046   3.60217   3.18553
       7   9.98263   5.76348   3.18553
       7   8.73480   7.92478   3.18553
       7   7.48697  10.08608   3.18553
       7   6.23915  12.24739   3.18553
       7   4.99132  14.40869   3.18553
       7   3.74349  16.56999   3.18553
       7   2.49566  18.73129   3.18553
       7   1.24783  20.89260   3.18553
       7   0.00000  23.05390   3.18553
       7  -1.24783  25.21520   3.18553
       7  -2.49566  27.37651   3.18553
       7  14.97395   1.44087   3.18553
       7  13.72612   3.60217   3.18553
       7  12.47829   5.76348   3.18553
       7  11.23046   7.92478   3.18553
       7   9.98263  10.08608   3.18553
       7   8.73480  12.24739   3.18553
       7   7.48697  14.40869   3.18553
       7   6.23915  16.56999   3.18553
       7   4.99132  18.73129   3.18553
       7   3.74349  20.89260   3.18553
       7   2.49566  23.05390   3.18553
       7   1.24783  25.21520   3.18553
       7   0.00000  27.37651   3.18553
       7  17.46961   1.44087   3.18553
       7  16.22178   3.60217   3.18553
       7  14.97395   5.76348   3.18553
       7  13.72612   7.92478   3.18553
       7  12.47829  10.08608   3.18553
       7  11.23046  12.24739   3.18553
       7   9.98263  14.40869   3.18553
       7   8.73480  16.56999   3.18553
       7   7.48697  18.73129   3.18553
       7   6.23914  20.89260   3.18553
       7   4.99132  23.05390   3.18553
       7   3.74349  25.21520   3.18553
       7   2.49566  27.37651   3.18553
       7  19.96527   1.44087   3.18553
       7  18.71744   3.60217   3.18553
       7  17.46961   5.76348   3.18553
       7  16.22178   7.92478   3.18553
       7  14.97395  10.08608   3.18553
       7  13.72612  12.24739   3.18553
       7  12.47829  14.40869   3.18553
       7  11.23046  16.56999   3.18553
       7   9.98263  18.73129   3.18553
       7   8.73480  20.89260   3.18553
       7   7.48697  23.05390   3.18553
       7   6.23915  25.21520   3.18553
       7   4.99132  27.37651   3.18553
       7  22.46092   1.44087   3.18553
       7  21.21309   3.60217   3.18553
       7  19.96527   5.76348   3.18553
       7  18.71744   7.92478   3.18553
       7  17.46961  10.08608   3.18553
       7  16.22178  12.24739   3.18553
       7  14.97395  14.40869   3.18553
       7  13.72612  16.56999   3.18553
       7  12.47829  18.73129   3.18553
       7  11.23046  20.89260   3.18553
       7   9.98263  23.05390   3.18553
       7   8.73480  25.21520   3.18553
       7   7.48697  27.37651   3.18553
       7  24.95658   1.44087   3.18553
       7  23.70875   3.60217   3.18553
       7  22.46092   5.76348   3.18553
       7  21.21309   7.92478   3.18553
       7  19.96527  10.08608   3.18553
       7  18.71744  12.24739   3.18553
       7  17.46961  14.40869   3.18553
       7  16.22178  16.56999   3.18553
       7  14.97395  18.73129   3.18553
       7  13.72612  20.89260   3.18553
       7  12.47829  23.05390   3.18553
       7  11.23046  25.21520   3.18553
       7   9.98263  27.37651   3.18553
       7  27.45224   1.44087   3.18553
       7  26.20441   3.60217   3.18553
       7  24.95658   5.76348   3.18553
       7  23.70875   7.92478   3.18553
       7  22.46092  10.08608   3.18553
       7  21.21309  12.24739   3.18553
       7  19.96527  14.40869   3.18553
       7  18.71744  16.56999   3.18553
       7  17.46961  18.73129   3.18553
       7  16.22178  20.89260   3.18553
       7  14.97395  23.05390   3.18553
       7  13.72612  25.21520   3.18553
       7  12.47829  27.37651   3.18553
       7  29.94790   1.44087   3.18553
       7  28.70007   3.60217   3.18553
       7  27.45224   5.76348   3.18553
       7  26.20441   7.92478   3.18553
       7  24.95658  10.08608   3.18553
       7  23.70875  12.24739   3.18553
       7  22.46092  14.40869   3.18553
       7  21.21310  16.56999   3.18553
       7  19.96527  18.73129   3.18553
       7  18.71744  20.89260   3.18553
       7  17.46961  23.05390   3.18553
       7  16.22178  25.21520   3.18553
       7  14.97395  27.37651   3.18553
   BEGIN_BLOCK_DATAGRID_3D
   Generated with YPP  4   0   2
   BEGIN_DATAGRID_3D
    118  118   22
    0.00      0.00      0.00    
    32.44356   0.00000   0.00000
   -16.22178  28.09694   0.00000
    0.000000  0.000000  6.371057
   0.775E-09
   0.532E-09
   0.369E-09
   0.317E-09
   0.424E-09
   0.636E-09
   0.913E-09
   0.1206E-8
   0.1445E-8
   0.1609E-8
   0.1693E-8
   0.1739E-8
   0.1791E-8
   0.1883E-8
   0.2024E-8
   0.2255E-8
   0.2605E-8
   0.3025E-8
   0.3510E-8
   0.3987E-8
   0.4337E-8
   0.4557E-8
   0.4647E-8
   0.4521E-8
   0.4243E-8
   0.3963E-8
   0.3768E-8
   0.3715E-8
   0.3779E-8
   0.3983E-8
   0.4269E-8
   0.4547E-8
   0.4671E-8
   0.4578E-8
   0.4354E-8
   0.4000E-8
   0.3520E-8
   0.3034E-8
   0.2613E-8
   0.2264E-8
   0.2034E-8
   0.1893E-8
   0.1801E-8
   0.1748E-8
   0.1701E-8
   0.1616E-8
   0.1450E-8
   0.1210E-8
   0.915E-09
   0.637E-09
   0.424E-09
   0.317E-09
   0.367E-09
   0.528E-09
   0.770E-09
   0.1092E-8
   0.1439E-8
   0.1795E-8
   0.2178E-8
   0.2566E-8
   0.2981E-8
   0.3503E-8
   0.4107E-8
   0.4796E-8
   0.5565E-8
   0.6287E-8
   0.7011E-8
   0.7769E-8
   0.8274E-8
   0.8615E-8
   0.8914E-8
   0.8968E-8
   0.8797E-8
   0.8728E-8
   0.8655E-8
   0.8628E-8
   0.8918E-8
   0.9335E-8
   0.9680E-8
   0.1007E-7
   0.1039E-7
   0.1049E-7
   0.1038E-7
   0.1006E-7
   0.9663E-8
   0.9313E-8
   0.8892E-8
   0.8599E-8
   0.8622E-8
   0.8694E-8
   0.8762E-8
   0.8934E-8
   0.8881E-8
   0.8583E-8
   0.8244E-8
   0.7743E-8
   0.6990E-8
   0.6271E-8
   0.5555E-8
   0.4792E-8
   0.4107E-8
   0.3507E-8
   0.2988E-8
   0.2574E-8
   0.2187E-8
   0.1803E-8
   0.1447E-8
   0.1099E-8
   0.775E-09
   0.532E-09
   0.369E-09
   0.317E-09
   0.424E-09
   0.636E-09
   0.913E-09
   0.1206E-8
   0.1445E-8
   0.775E-09
   0.1101E-8
   0.906E-09
   0.801E-09
   0.762E-09
   0.783E-09
   0.881E-09
   0.1082E-8
   0.1296E-8
   0.1465E-8
   0.1562E-8
   0.1616E-8
   0.1625E-8
   0.1611E-8
   0.1635E-8
   0.1730E-8
   0.1907E-8
   0.2201E-8
   0.2591E-8
   0.3031E-8
   0.3568E-8
   0.4020E-8
   0.4299E-8
   0.4453E-8
   0.4453E-8
   0.4272E-8
   0.4033E-8
   0.3863E-8
   0.3725E-8
   0.3731E-8
   0.3879E-8
   0.4056E-8
   0.4297E-8
   0.4477E-8
   0.4474E-8
   0.4316E-8
   0.4034E-8
   0.3579E-8
   0.3039E-8
   0.2599E-8
   0.2211E-8
   0.1917E-8
   0.1741E-8
   0.1645E-8
   0.1621E-8
   0.1635E-8
   0.1626E-8
   0.1570E-8
   0.1472E-8
   0.1301E-8
   0.1085E-8
   0.883E-09
   0.784E-09
   0.760E-09
   0.797E-09
   0.900E-09
   0.1093E-8
   0.1298E-8
   0.1490E-8
   0.1707E-8
   0.1946E-8
   0.2219E-8
   0.2629E-8
   0.3150E-8
   0.3719E-8
   0.4466E-8
   0.5270E-8
   0.6014E-8
   0.6769E-8
   0.7494E-8
   0.8153E-8
   0.8648E-8
   0.8886E-8
   0.8886E-8
   0.8777E-8
   0.8761E-8
   0.8718E-8
   0.8706E-8
   0.8841E-8
   0.9102E-8
   0.9440E-8
   0.9792E-8
   0.9893E-8
   0.9891E-8
   0.9784E-8
   0.9426E-8
   0.9082E-8
   0.8816E-8
   0.8677E-8
   0.8687E-8
   0.8728E-8
   0.8743E-8
   0.8851E-8
   0.8852E-8
   0.8616E-8
   0.8122E-8
   0.7466E-8
   0.6745E-8
   0.5995E-8
   0.5257E-8
   0.4460E-8
   0.3716E-8
   0.3152E-8
   0.2634E-8
   0.2227E-8
   0.1955E-8
   0.1717E-8
   0.1500E-8
   0.1307E-8
   0.1101E-8
   0.906E-09
   0.801E-09
   0.762E-09
   0.783E-09
   0.881E-09
   0.1082E-8
   0.1296E-8
   0.1465E-8
   0.1101E-8
   0.1451E-8
   0.1381E-8
   0.1281E-8
   0.1232E-8
   0.1277E-8
   0.1341E-8
   0.1437E-8
   0.1557E-8
   0.1634E-8
   0.1678E-8
   0.1682E-8
   0.1637E-8
   0.1564E-8
   0.1516E-8
   0.1514E-8
   0.1613E-8
   0.1817E-8
   0.2127E-8
   0.2540E-8
   0.3020E-8
   0.3519E-8
   0.3938E-8
   0.4191E-8
   0.4237E-8
   0.4173E-8
   0.4020E-8
   0.3809E-8
   0.3617E-8
   0.3514E-8
   0.3628E-8
   0.3827E-8
   0.4042E-8
   0.4195E-8
   0.4257E-8
   0.4209E-8
   0.3952E-8
   0.3531E-8
   0.3029E-8
   0.2549E-8
   0.2135E-8
   0.1828E-8
   0.1624E-8
   0.1526E-8
   0.1527E-8
   0.1576E-8
   0.1648E-8
   0.1693E-8
   0.1689E-8
   0.1642E-8
   0.1563E-8
   0.1441E-8
   0.1342E-8
   0.1276E-8
   0.1227E-8
   0.1273E-8
   0.1372E-8
   0.1440E-8
   0.1490E-8
   0.1555E-8
   0.1604E-8
   0.1685E-8
   0.1902E-8
   0.2212E-8
   0.2603E-8
   0.3142E-8
   0.3852E-8
   0.4663E-8
   0.5481E-8
   0.6239E-8
   0.7043E-8
   0.7701E-8
   0.8065E-8
   0.8331E-8
   0.8443E-8
   0.8348E-8
   0.8281E-8
   0.8323E-8
   0.8331E-8
   0.8413E-8
   0.8674E-8
   0.8892E-8
   0.8985E-8
   0.8965E-8
   0.8981E-8
   0.8882E-8
   0.8658E-8
   0.8391E-8
   0.8304E-8
   0.8294E-8
   0.8250E-8
   0.8315E-8
   0.8410E-8
   0.8297E-8
   0.8032E-8
   0.7669E-8
   0.7014E-8
   0.6214E-8
   0.5462E-8
   0.4650E-8
   0.3844E-8
   0.3138E-8
   0.2604E-8
   0.2216E-8
   0.1909E-8
   0.1694E-8
   0.1615E-8
   0.1567E-8
   0.1502E-8
   0.1451E-8
   0.1381E-8
   0.1281E-8
   0.1232E-8
   0.1277E-8
   0.1341E-8
   0.1437E-8
   0.1557E-8
   0.1634E-8
   0.1451E-8
   0.1809E-8
   0.1874E-8
   0.1886E-8
   0.1856E-8
   0.1822E-8
   0.1836E-8
   0.1892E-8
   0.1927E-8
   0.1951E-8
   0.1942E-8
   0.1884E-8
   0.1779E-8
   0.1626E-8
   0.1499E-8
   0.1417E-8
   0.1402E-8
   0.1511E-8
   0.1724E-8
   0.2067E-8
   0.2519E-8
   0.2970E-8
   0.3405E-8
   0.3778E-8
   0.3959E-8
   0.3936E-8
   0.3855E-8
   0.3640E-8
   0.3390E-8
   0.3280E-8
   0.3285E-8
   0.3403E-8
   0.3658E-8
   0.3875E-8
   0.3955E-8
   0.3975E-8
   0.3792E-8
   0.3416E-8
   0.2979E-8
   0.2527E-8
   0.2075E-8
   0.1733E-8
   0.1521E-8
   0.1413E-8
   0.1428E-8
   0.1510E-8
   0.1638E-8
   0.1791E-8
   0.1896E-8
   0.1953E-8
   0.1960E-8
   0.1934E-8
   0.1895E-8
   0.1836E-8
   0.1818E-8
   0.1849E-8
   0.1875E-8
   0.1862E-8
   0.1796E-8
   0.1707E-8
   0.1604E-8
   0.1495E-8
   0.1471E-8
   0.1518E-8
   0.1672E-8
   0.2017E-8
   0.2495E-8
   0.3096E-8
   0.3869E-8
   0.4670E-8
   0.5439E-8
   0.6217E-8
   0.6817E-8
   0.7269E-8
   0.7633E-8
   0.7739E-8
   0.7649E-8
   0.7593E-8
   0.7598E-8
   0.7596E-8
   0.7724E-8
   0.7842E-8
   0.7908E-8
   0.8000E-8
   0.7999E-8
   0.7903E-8
   0.7831E-8
   0.7707E-8
   0.7575E-8
   0.7573E-8
   0.7566E-8
   0.7620E-8
   0.7708E-8
   0.7602E-8
   0.7239E-8
   0.6787E-8
   0.6189E-8
   0.5415E-8
   0.4651E-8
   0.3856E-8
   0.3087E-8
   0.2490E-8
   0.2016E-8
   0.1674E-8
   0.1523E-8
   0.1479E-8
   0.1506E-8
   0.1616E-8
   0.1720E-8
   0.1809E-8
   0.1874E-8
   0.1886E-8
   0.1856E-8
   0.1822E-8
   0.1836E-8
   0.1892E-8
   0.1927E-8
   0.1951E-8
   0.1809E-8
   0.2195E-8
   0.2316E-8
   0.2387E-8
   0.2441E-8
   0.2468E-8
   0.2420E-8
   0.2396E-8
   0.2396E-8
   0.2336E-8
   0.2286E-8
   0.2163E-8
   0.1977E-8
   0.1770E-8
   0.1571E-8
   0.1401E-8
   0.1283E-8
   0.1286E-8
   0.1410E-8
   0.1662E-8
   0.2038E-8
   0.2491E-8
   0.2938E-8
   0.3303E-8
   0.3543E-8
   0.3642E-8
   0.3552E-8
   0.3392E-8
   0.3184E-8
   0.3059E-8
   0.3025E-8
   0.3067E-8
   0.3198E-8
   0.3409E-8
   0.3569E-8
   0.3657E-8
   0.3555E-8
   0.3313E-8
   0.2946E-8
   0.2498E-8
   0.2046E-8
   0.1670E-8
   0.1419E-8
   0.1296E-8
   0.1294E-8
   0.1413E-8
   0.1583E-8
   0.1783E-8
   0.1990E-8
   0.2176E-8
   0.2297E-8
   0.2345E-8
   0.2401E-8
   0.2398E-8
   0.2418E-8
   0.2461E-8
   0.2430E-8
   0.2375E-8
   0.2302E-8
   0.2180E-8
   0.1946E-8
   0.1684E-8
   0.1471E-8
   0.1252E-8
   0.1169E-8
   0.1249E-8
   0.1475E-8
   0.1849E-8
   0.2347E-8
   0.2994E-8
   0.3740E-8
   0.4459E-8
   0.5229E-8
   0.5849E-8
   0.6293E-8
   0.6586E-8
   0.6740E-8
   0.6773E-8
   0.6727E-8
   0.6707E-8
   0.6740E-8
   0.6800E-8
   0.6891E-8
   0.6999E-8
   0.7061E-8
   0.6996E-8
   0.6885E-8
   0.6789E-8
   0.6725E-8
   0.6689E-8
   0.6707E-8
   0.6750E-8
   0.6716E-8
   0.6559E-8
   0.6266E-8
   0.5823E-8
   0.5205E-8
   0.4437E-8
   0.3722E-8
   0.2981E-8
   0.2338E-8
   0.1844E-8
   0.1473E-8
   0.1251E-8
   0.1173E-8
   0.1259E-8
   0.1481E-8
   0.1697E-8
   0.1960E-8
   0.2195E-8
   0.2316E-8
   0.2387E-8
   0.2441E-8
   0.2468E-8
   0.2420E-8
   0.2396E-8
   0.2396E-8
   0.2336E-8
   0.2195E-8
   0.2584E-8
   0.2795E-8
   0.2915E-8
   0.2976E-8
   0.2936E-8
   0.2917E-8
   0.2833E-8
   0.2782E-8
   0.2690E-8
   0.2545E-8
   0.2404E-8
   0.2174E-8
   0.1924E-8
   0.1662E-8
   0.1444E-8
   0.1236E-8
   0.1147E-8
   0.1176E-8
   0.1338E-8
   0.1621E-8
   0.2022E-8
   0.2458E-8
   0.2904E-8
   0.3162E-8
   0.3325E-8
   0.3330E-8
   0.3156E-8
   0.2980E-8
   0.2798E-8
   0.2651E-8
   0.2655E-8
   0.2808E-8
   0.2993E-8
   0.3172E-8
   0.3344E-8
   0.3336E-8
   0.3170E-8
   0.2909E-8
   0.2462E-8
   0.2027E-8
   0.1627E-8
   0.1345E-8
   0.1184E-8
   0.1156E-8
   0.1246E-8
   0.1456E-8
   0.1675E-8
   0.1938E-8
   0.2188E-8
   0.2418E-8
   0.2557E-8
   0.2698E-8
   0.2786E-8
   0.2833E-8
   0.2912E-8
   0.2928E-8
   0.2964E-8
   0.2901E-8
   0.2780E-8
   0.2569E-8
   0.2219E-8
   0.1902E-8
   0.1517E-8
   0.1168E-8
   0.980E-09
   0.858E-09
   0.942E-09
   0.1218E-8
   0.1609E-8
   0.2185E-8
   0.2819E-8
   0.3480E-8
   0.4206E-8
   0.4735E-8
   0.5149E-8
   0.5438E-8
   0.5667E-8
   0.5741E-8
   0.5758E-8
   0.5815E-8
   0.5842E-8
   0.5932E-8
   0.6005E-8
   0.6010E-8
   0.6009E-8
   0.6001E-8
   0.5925E-8
   0.5832E-8
   0.5804E-8
   0.5745E-8
   0.5725E-8
   0.5649E-8
   0.5419E-8
   0.5129E-8
   0.4715E-8
   0.4187E-8
   0.3463E-8
   0.2805E-8
   0.2174E-8
   0.1602E-8
   0.1214E-8
   0.941E-09
   0.859E-09
   0.984E-09
   0.1175E-8
   0.1526E-8
   0.1914E-8
   0.2233E-8
   0.2584E-8
   0.2795E-8
   0.2915E-8
   0.2976E-8
   0.2936E-8
   0.2917E-8
   0.2833E-8
   0.2782E-8
   0.2690E-8
   0.2584E-8
   0.3001E-8
   0.3296E-8
   0.3421E-8
   0.3482E-8
   0.3406E-8
   0.3296E-8
   0.3190E-8
   0.3022E-8
   0.2922E-8
   0.2734E-8
   0.2540E-8
   0.2303E-8
   0.2046E-8
   0.1734E-8
   0.1442E-8
   0.1210E-8
   0.1029E-8
   0.998E-09
   0.1075E-8
   0.1285E-8
   0.1635E-8
   0.2049E-8
   0.2450E-8
   0.2811E-8
   0.2981E-8
   0.3075E-8
   0.2941E-8
   0.2737E-8
   0.2525E-8
   0.2348E-8
   0.2308E-8
   0.2354E-8
   0.2535E-8
   0.2749E-8
   0.2953E-8
   0.3083E-8
   0.2986E-8
   0.2813E-8
   0.2451E-8
   0.2050E-8
   0.1638E-8
   0.1289E-8
   0.1080E-8
   0.1005E-8
   0.1037E-8
   0.1220E-8
   0.1453E-8
   0.1746E-8
   0.2060E-8
   0.2317E-8
   0.2553E-8
   0.2744E-8
   0.2929E-8
   0.3025E-8
   0.3189E-8
   0.3291E-8
   0.3397E-8
   0.3470E-8
   0.3407E-8
   0.3281E-8
   0.2986E-8
   0.2631E-8
   0.2213E-8
   0.1672E-8
   0.1249E-8
   0.858E-09
   0.625E-09
   0.559E-09
   0.664E-09
   0.951E-09
   0.1419E-8
   0.1904E-8
   0.2532E-8
   0.3109E-8
   0.3638E-8
   0.4093E-8
   0.4367E-8
   0.4576E-8
   0.4692E-8
   0.4824E-8
   0.4893E-8
   0.4962E-8
   0.5051E-8
   0.5081E-8
   0.5113E-8
   0.5079E-8
   0.5047E-8
   0.4958E-8
   0.4887E-8
   0.4818E-8
   0.4683E-8
   0.4565E-8
   0.4355E-8
   0.4079E-8
   0.3624E-8
   0.3094E-8
   0.2519E-8
   0.1894E-8
   0.1411E-8
   0.946E-09
   0.661E-09
   0.558E-09
   0.626E-09
   0.861E-09
   0.1255E-8
   0.1680E-8
   0.2224E-8
   0.2644E-8
   0.3001E-8
   0.3296E-8
   0.3421E-8
   0.3482E-8
   0.3406E-8
   0.3296E-8
   0.3190E-8
   0.3022E-8
   0.2922E-8
   0.3001E-8
   0.3525E-8
   0.3806E-8
   0.3952E-8
   0.3910E-8
   0.3789E-8
   0.3617E-8
   0.3465E-8
   0.3208E-8
   0.3017E-8
   0.2828E-8
   0.2586E-8
   0.2341E-8
   0.2036E-8
   0.1727E-8
   0.1397E-8
   0.1156E-8
   0.933E-09
   0.838E-09
   0.867E-09
   0.1025E-8
   0.1299E-8
   0.1697E-8
   0.2096E-8
   0.2478E-8
   0.2699E-8
   0.2806E-8
   0.2769E-8
   0.2536E-8
   0.2314E-8
   0.2077E-8
   0.1972E-8
   0.1974E-8
   0.2083E-8
   0.2323E-8
   0.2545E-8
   0.2775E-8
   0.2809E-8
   0.2699E-8
   0.2475E-8
   0.2093E-8
   0.1696E-8
   0.1299E-8
   0.1028E-8
   0.871E-09
   0.844E-09
   0.940E-09
   0.1165E-8
   0.1408E-8
   0.1740E-8
   0.2049E-8
   0.2355E-8
   0.2598E-8
   0.2838E-8
   0.3024E-8
   0.3211E-8
   0.3463E-8
   0.3612E-8
   0.3780E-8
   0.3898E-8
   0.3938E-8
   0.3791E-8
   0.3511E-8
   0.3155E-8
   0.2606E-8
   0.2019E-8
   0.1476E-8
   0.943E-09
   0.559E-09
   0.329E-09
   0.306E-09
   0.465E-09
   0.776E-09
   0.1184E-8
   0.1717E-8
   0.2165E-8
   0.2670E-8
   0.3078E-8
   0.3400E-8
   0.3630E-8
   0.3833E-8
   0.3995E-8
   0.4071E-8
   0.4185E-8
   0.4239E-8
   0.4280E-8
   0.4279E-8
   0.4237E-8
   0.4183E-8
   0.4069E-8
   0.3993E-8
   0.3830E-8
   0.3625E-8
   0.3393E-8
   0.3070E-8
   0.2661E-8
   0.2156E-8
   0.1708E-8
   0.1177E-8
   0.770E-09
   0.461E-09
   0.305E-09
   0.329E-09
   0.561E-09
   0.947E-09
   0.1482E-8
   0.2027E-8
   0.2616E-8
   0.3167E-8
   0.3525E-8
   0.3806E-8
   0.3952E-8
   0.3910E-8
   0.3789E-8
   0.3617E-8
   0.3465E-8
   0.3208E-8
   0.3017E-8
   0.3525E-8
   0.4130E-8
   0.4351E-8
   0.4429E-8
   0.4350E-8
   0.4161E-8
   0.3882E-8
   0.3588E-8
   0.3287E-8
   0.3010E-8
   0.2780E-8
   0.2500E-8
   0.2260E-8
   0.1943E-8
   0.1620E-8
   0.1320E-8
   0.1045E-8
   0.816E-09
   0.686E-09
   0.686E-09
   0.815E-09
   0.1075E-8
   0.1419E-8
   0.1813E-8
   0.2202E-8
   0.2490E-8
   0.2586E-8
   0.2595E-8
   0.2409E-8
   0.2132E-8
   0.1911E-8
   0.1675E-8
   0.1581E-8
   0.1679E-8
   0.1917E-8
   0.2138E-8
   0.2413E-8
   0.2595E-8
   0.2583E-8
   0.2485E-8
   0.2195E-8
   0.1807E-8
   0.1416E-8
   0.1074E-8
   0.816E-09
   0.688E-09
   0.690E-09
   0.822E-09
   0.1053E-8
   0.1330E-8
   0.1631E-8
   0.1955E-8
   0.2272E-8
   0.2512E-8
   0.2789E-8
   0.3016E-8
   0.3288E-8
   0.3586E-8
   0.3876E-8
   0.4151E-8
   0.4337E-8
   0.4415E-8
   0.4338E-8
   0.4118E-8
   0.3727E-8
   0.3148E-8
   0.2499E-8
   0.1854E-8
   0.1222E-8
   0.666E-09
   0.307E-09
   0.131E-09
   0.148E-09
   0.325E-09
   0.649E-09
   0.1073E-8
   0.1476E-8
   0.1880E-8
   0.2276E-8
   0.2633E-8
   0.2872E-8
   0.3112E-8
   0.3269E-8
   0.3387E-8
   0.3504E-8
   0.3541E-8
   0.3550E-8
   0.3541E-8
   0.3504E-8
   0.3387E-8
   0.3269E-8
   0.3113E-8
   0.2871E-8
   0.2630E-8
   0.2272E-8
   0.1876E-8
   0.1471E-8
   0.1068E-8
   0.645E-09
   0.322E-09
   0.146E-09
   0.131E-09
   0.309E-09
   0.669E-09
   0.1225E-8
   0.1858E-8
   0.2506E-8
   0.3157E-8
   0.3737E-8
   0.4130E-8
   0.4351E-8
   0.4429E-8
   0.4350E-8
   0.4161E-8
   0.3882E-8
   0.3588E-8
   0.3287E-8
   0.3010E-8
   0.4130E-8
   0.4823E-8
   0.5010E-8
   0.5009E-8
   0.4758E-8
   0.4452E-8
   0.4097E-8
   0.3662E-8
   0.3259E-8
   0.2942E-8
   0.2637E-8
   0.2319E-8
   0.2055E-8
   0.1770E-8
   0.1469E-8
   0.1185E-8
   0.879E-09
   0.650E-09
   0.544E-09
   0.544E-09
   0.666E-09
   0.908E-09
   0.1258E-8
   0.1662E-8
   0.2023E-8
   0.2305E-8
   0.2446E-8
   0.2429E-8
   0.2271E-8
   0.1976E-8
   0.1681E-8
   0.1454E-8
   0.1336E-8
   0.1337E-8
   0.1458E-8
   0.1684E-8
   0.1977E-8
   0.2270E-8
   0.2423E-8
   0.2437E-8
   0.2295E-8
   0.2013E-8
   0.1654E-8
   0.1253E-8
   0.905E-09
   0.666E-09
   0.546E-09
   0.547E-09
   0.655E-09
   0.886E-09
   0.1194E-8
   0.1478E-8
   0.1780E-8
   0.2065E-8
   0.2329E-8
   0.2645E-8
   0.2947E-8
   0.3260E-8
   0.3658E-8
   0.4089E-8
   0.4442E-8
   0.4745E-8