#  __      __   ______   __       __  _______    ______     
# |  \    /  \ /      \ |  \     /  \|       \  /      \    
#  \$$\  /  $$|  $$$$$$\| $$\   /  $$| $$$$$$$\|  $$$$$$\   
#   \$$\/  $$ | $$__| $$| $$$\ /  $$$| $$__/ $$| $$  | $$   
#    \$$  $$  | $$    $$| $$$$\  $$$$| $$    $$| $$  | $$   
#     \$$$$   | $$$$$$$$| $$\$$ $$ $$| $$$$$$$\| $$  | $$   
#     | $$    | $$  | $$| $$ \$$$| $$| $$__/ $$| $$__/ $$   
#     | $$    | $$  | $$| $$  \$ | $$| $$    $$ \$$    $$   
#      \$$     \$$   \$$ \$$      \$$ \$$$$$$$   \$$$$$$    
#                                                           
#               Version 4.0.2 Revision 5161                 
#                        MPI Build                          
#                http://www.yambo-code.org                  
#
# BSK|Identifier              :4248
#    |Dimension               :576
#    |Bands                   :3 - 6
#    |Exchange           [res]: yes
#    |Correlation        [res]: yes
#    |Kernel`s coupling       : no
#    |Exchange           [cpl]: no
#    |Correlation        [cpl]: no
#    |W interaction is bare   : no
#    |ALDA kernel in R-space  : no
#    |RL vectors    [exchange]:11
#    |RL vectors [correlation]:1
#    |E/h energy range    [ev]:-1.000000 - -1.000000
#    |Coupling range     [o/o]: 100.0000 -  100.0000
#  W |Interaction is diagonal : no
#    |Matrix size             :37
#    |Bands                   :1 - 30
#    |e/h energy range    [ev]:-1.000000 - -1.000000
#    |Poles              [o/o]: 100.0000
#    |Rl vectors in the sum   :651
#    |[r,Vnl] included        : yes
#    |Field direction         : 0.000000 0.1000E-4  0.000000
#    |Coulomb Cutoff          :none
#    |xc-Kernel               :none
# RIM|RL components      [col]:0
#    |Random points      [col]:0
#
   CRYSTAL
   PRIMVEC
    32.4     0.746E-18  0.00    
   -16.22178  28.09694   0.00000
    0.000000  0.000000  6.371057
   PRIMCOORD
     339     1
   -1   7.48697  12.96782   3.64060
       5  -0.00000   1.44087   3.18553
       5  -1.24783   3.60217   3.18553
       5  -2.49566   5.76347   3.18553
       5  -3.74349   7.92478   3.18553
       5  -4.99132  10.08608   3.18553
       5  -6.23914  12.24738   3.18553
       5  -7.48697  14.40869   3.18553
       5  -8.73480  16.56999   3.18553
       5  -9.98263  18.73129   3.18553
       5 -11.23046  20.89260   3.18553
       5 -12.47829  23.05390   3.18553
       5 -13.72612  25.21520   3.18553
       5 -14.97395  27.37650   3.18553
       5   2.49566   1.44087   3.18553
       5   1.24783   3.60217   3.18553
       5   0.00000   5.76347   3.18553
       5  -1.24783   7.92478   3.18553
       5  -2.49566  10.08608   3.18553
       5  -3.74349  12.24738   3.18553
       5  -4.99131  14.40869   3.18553
       5  -6.23914  16.56999   3.18553
       5  -7.48697  18.73129   3.18553
       5  -8.73480  20.89260   3.18553
       5  -9.98263  23.05390   3.18553
       5 -11.23046  25.21520   3.18553
       5 -12.47829  27.37650   3.18553
       5   4.99132   1.44087   3.18553
       5   3.74349   3.60217   3.18553
       5   2.49566   5.76347   3.18553
       5   1.24783   7.92478   3.18553
       5   0.00000  10.08608   3.18553
       5  -1.24783  12.24738   3.18553
       5  -2.49566  14.40869   3.18553
       5  -3.74349  16.56999   3.18553
       5  -4.99132  18.73129   3.18553
       5  -6.23914  20.89260   3.18553
       5  -7.48697  23.05390   3.18553
       5  -8.73480  25.21520   3.18553
       5  -9.98263  27.37650   3.18553
       5   7.48697   1.44087   3.18553
       5   6.23914   3.60217   3.18553
       5   4.99131   5.76347   3.18553
       5   3.74349   7.92478   3.18553
       5   2.49566  10.08608   3.18553
       5   1.24783  12.24738   3.18553
       5   0.00000  14.40869   3.18553
       5  -1.24783  16.56999   3.18553
       5  -2.49566  18.73129   3.18553
       5  -3.74349  20.89260   3.18553
       5  -4.99132  23.05390   3.18553
       5  -6.23914  25.21520   3.18553
       5  -7.48697  27.37650   3.18553
       5   9.98263   1.44087   3.18553
       5   8.73480   3.60217   3.18553
       5   7.48697   5.76347   3.18553
       5   6.23914   7.92478   3.18553
       5   4.99132  10.08608   3.18553
       5   3.74349  12.24738   3.18553
       5   2.49566  14.40869   3.18553
       5   1.24783  16.56999   3.18553
       5   0.00000  18.73129   3.18553
       5  -1.24783  20.89260   3.18553
       5  -2.49566  23.05390   3.18553
       5  -3.74349  25.21520   3.18553
       5  -4.99131  27.37650   3.18553
       5  12.47829   1.44087   3.18553
       5  11.23046   3.60217   3.18553
       5   9.98263   5.76347   3.18553
       5   8.73480   7.92478   3.18553
       5   7.48697  10.08608   3.18553
       5   6.23914  12.24738   3.18553
       5   4.99132  14.40869   3.18553
       5   3.74349  16.56999   3.18553
       5   2.49566  18.73129   3.18553
       5   1.24783  20.89260   3.18553
       5   0.00000  23.05390   3.18553
       5  -1.24783  25.21520   3.18553
       5  -2.49566  27.37650   3.18553
       5  14.97395   1.44087   3.18553
       5  13.72612   3.60217   3.18553
       5  12.47829   5.76347   3.18553
       5  11.23046   7.92478   3.18553
       5   9.98263  10.08608   3.18553
       5   8.73480  12.24738   3.18553
       5   7.48697  14.40869   3.18553
       5   6.23914  16.56999   3.18553
       5   4.99131  18.73129   3.18553
       5   3.74349  20.89260   3.18553
       5   2.49566  23.05390   3.18553
       5   1.24783  25.21520   3.18553
       5   0.00000  27.37650   3.18553
       5  17.46960   1.44087   3.18553
       5  16.22178   3.60217   3.18553
       5  14.97395   5.76347   3.18553
       5  13.72612   7.92478   3.18553
       5  12.47829  10.08608   3.18553
       5  11.23046  12.24738   3.18553
       5   9.98263  14.40869   3.18553
       5   8.73480  16.56999   3.18553
       5   7.48697  18.73129   3.18553
       5   6.23915  20.89260   3.18553
       5   4.99132  23.05390   3.18553
       5   3.74349  25.21520   3.18553
       5   2.49566  27.37650   3.18553
       5  19.96526   1.44087   3.18553
       5  18.71743   3.60217   3.18553
       5  17.46960   5.76347   3.18553
       5  16.22178   7.92478   3.18553
       5  14.97395  10.08608   3.18553
       5  13.72612  12.24738   3.18553
       5  12.47829  14.40869   3.18553
       5  11.23046  16.56999   3.18553
       5   9.98263  18.73129   3.18553
       5   8.73480  20.89260   3.18553
       5   7.48697  23.05390   3.18553
       5   6.23914  25.21520   3.18553
       5   4.99132  27.37650   3.18553
       5  22.46092   1.44087   3.18553
       5  21.21309   3.60217   3.18553
       5  19.96526   5.76347   3.18553
       5  18.71743   7.92478   3.18553
       5  17.46960  10.08608   3.18553
       5  16.22178  12.24738   3.18553
       5  14.97395  14.40869   3.18553
       5  13.72612  16.56999   3.18553
       5  12.47829  18.73129   3.18553
       5  11.23046  20.89260   3.18553
       5   9.98263  23.05390   3.18553
       5   8.73480  25.21520   3.18553
       5   7.48697  27.37650   3.18553
       5  24.95658   1.44087   3.18553
       5  23.70875   3.60217   3.18553
       5  22.46092   5.76347   3.18553
       5  21.21309   7.92478   3.18553
       5  19.96526  10.08608   3.18553
       5  18.71743  12.24738   3.18553
       5  17.46960  14.40869   3.18553
       5  16.22178  16.56999   3.18553
       5  14.97395  18.73129   3.18553
       5  13.72612  20.89260   3.18553
       5  12.47829  23.05390   3.18553
       5  11.23046  25.21520   3.18553
       5   9.98263  27.37650   3.18553
       5  27.45223   1.44087   3.18553
       5  26.20440   3.60217   3.18553
       5  24.95658   5.76347   3.18553
       5  23.70875   7.92478   3.18553
       5  22.46092  10.08608   3.18553
       5  21.21309  12.24738   3.18553
       5  19.96526  14.40869   3.18553
       5  18.71743  16.56999   3.18553
       5  17.46960  18.73129   3.18553
       5  16.22178  20.89260   3.18553
       5  14.97395  23.05390   3.18553
       5  13.72612  25.21520   3.18553
       5  12.47829  27.37650   3.18553
       5  29.94789   1.44087   3.18553
       5  28.70006   3.60217   3.18553
       5  27.45223   5.76347   3.18553
       5  26.20440   7.92478   3.18553
       5  24.95658  10.08608   3.18553
       5  23.70875  12.24738   3.18553
       5  22.46092  14.40869   3.18553
       5  21.21309  16.56999   3.18553
       5  19.96526  18.73129   3.18553
       5  18.71743  20.89260   3.18553
       5  17.46960  23.05390   3.18553
       5  16.22178  25.21520   3.18553
       5  14.97395  27.37650   3.18553
       7   0.00000   0.00000   3.18553
       7  -1.24783   2.16130   3.18553
       7  -2.49566   4.32261   3.18553
       7  -3.74349   6.48391   3.18553
       7  -4.99132   8.64521   3.18553
       7  -6.23914  10.80651   3.18553
       7  -7.48697  12.96782   3.18553
       7  -8.73480  15.12912   3.18553
       7  -9.98263  17.29042   3.18553
       7 -11.23046  19.45173   3.18553
       7 -12.47829  21.61303   3.18553
       7 -13.72612  23.77433   3.18553
       7 -14.97395  25.93564   3.18553
       7   2.49566   0.00000   3.18553
       7   1.24783   2.16130   3.18553
       7   0.00000   4.32261   3.18553
       7  -1.24783   6.48391   3.18553
       7  -2.49566   8.64521   3.18553
       7  -3.74349  10.80651   3.18553
       7  -4.99131  12.96782   3.18553
       7  -6.23914  15.12912   3.18553
       7  -7.48697  17.29042   3.18553
       7  -8.73480  19.45173   3.18553
       7  -9.98263  21.61303   3.18553
       7 -11.23046  23.77433   3.18553
       7 -12.47829  25.93564   3.18553
       7   4.99132   0.00000   3.18553
       7   3.74349   2.16130   3.18553
       7   2.49566   4.32261   3.18553
       7   1.24783   6.48391   3.18553
       7   0.00000   8.64521   3.18553
       7  -1.24783  10.80651   3.18553
       7  -2.49566  12.96782   3.18553
       7  -3.74349  15.12912   3.18553
       7  -4.99132  17.29042   3.18553
       7  -6.23914  19.45173   3.18553
       7  -7.48697  21.61303   3.18553
       7  -8.73480  23.77433   3.18553
       7  -9.98263  25.93564   3.18553
       7   7.48697   0.00000   3.18553
       7   6.23914   2.16130   3.18553
       7   4.99131   4.32261   3.18553
       7   3.74349   6.48391   3.18553
       7   2.49566   8.64521   3.18553
       7   1.24783  10.80651   3.18553
       7   0.00000  12.96782   3.18553
       7  -1.24783  15.12912   3.18553
       7  -2.49566  17.29042   3.18553
       7  -3.74349  19.45173   3.18553
       7  -4.99132  21.61303   3.18553
       7  -6.23914  23.77433   3.18553
       7  -7.48697  25.93564   3.18553
       7   9.98263   0.00000   3.18553
       7   8.73480   2.16130   3.18553
       7   7.48697   4.32261   3.18553
       7   6.23914   6.48391   3.18553
       7   4.99132   8.64521   3.18553
       7   3.74349  10.80651   3.18553
       7   2.49566  12.96782   3.18553
       7   1.24783  15.12912   3.18553
       7   0.00000  17.29042   3.18553
       7  -1.24783  19.45173   3.18553
       7  -2.49566  21.61303   3.18553
       7  -3.74349  23.77433   3.18553
       7  -4.99131  25.93564   3.18553
       7  12.47829   0.00000   3.18553
       7  11.23046   2.16130   3.18553
       7   9.98263   4.32261   3.18553
       7   8.73480   6.48391   3.18553
       7   7.48697   8.64521   3.18553
       7   6.23914  10.80651   3.18553
       7   4.99132  12.96782   3.18553
       7   3.74349  15.12912   3.18553
       7   2.49566  17.29042   3.18553
       7   1.24783  19.45173   3.18553
       7   0.00000  21.61303   3.18553
       7  -1.24783  23.77433   3.18553
       7  -2.49566  25.93564   3.18553
       7  14.97395   0.00000   3.18553
       7  13.72612   2.16130   3.18553
       7  12.47829   4.32261   3.18553
       7  11.23046   6.48391   3.18553
       7   9.98263   8.64521   3.18553
       7   8.73480  10.80651   3.18553
       7   7.48697  12.96782   3.18553
       7   6.23914  15.12912   3.18553
       7   4.99131  17.29042   3.18553
       7   3.74349  19.45173   3.18553
       7   2.49566  21.61303   3.18553
       7   1.24783  23.77433   3.18553
       7   0.00000  25.93564   3.18553
       7  17.46960   0.00000   3.18553
       7  16.22178   2.16130   3.18553
       7  14.97395   4.32261   3.18553
       7  13.72612   6.48391   3.18553
       7  12.47829   8.64521   3.18553
       7  11.23046  10.80651   3.18553
       7   9.98263  12.96782   3.18553
       7   8.73480  15.12912   3.18553
       7   7.48697  17.29042   3.18553
       7   6.23915  19.45173   3.18553
       7   4.99132  21.61303   3.18553
       7   3.74349  23.77433   3.18553
       7   2.49566  25.93564   3.18553
       7  19.96526   0.00000   3.18553
       7  18.71743   2.16130   3.18553
       7  17.46960   4.32261   3.18553
       7  16.22178   6.48391   3.18553
       7  14.97395   8.64521   3.18553
       7  13.72612  10.80651   3.18553
       7  12.47829  12.96782   3.18553
       7  11.23046  15.12912   3.18553
       7   9.98263  17.29042   3.18553
       7   8.73480  19.45173   3.18553
       7   7.48697  21.61303   3.18553
       7   6.23914  23.77433   3.18553
       7   4.99132  25.93564   3.18553
       7  22.46092   0.00000   3.18553
       7  21.21309   2.16130   3.18553
       7  19.96526   4.32261   3.18553
       7  18.71743   6.48391   3.18553
       7  17.46960   8.64521   3.18553
       7  16.22178  10.80651   3.18553
       7  14.97395  12.96782   3.18553
       7  13.72612  15.12912   3.18553
       7  12.47829  17.29042   3.18553
       7  11.23046  19.45173   3.18553
       7   9.98263  21.61303   3.18553
       7   8.73480  23.77433   3.18553
       7   7.48697  25.93564   3.18553
       7  24.95658   0.00000   3.18553
       7  23.70875   2.16130   3.18553
       7  22.46092   4.32261   3.18553
       7  21.21309   6.48391   3.18553
       7  19.96526   8.64521   3.18553
       7  18.71743  10.80651   3.18553
       7  17.46960  12.96782   3.18553
       7  16.22178  15.12912   3.18553
       7  14.97395  17.29042   3.18553
       7  13.72612  19.45173   3.18553
       7  12.47829  21.61303   3.18553
       7  11.23046  23.77433   3.18553
       7   9.98263  25.93564   3.18553
       7  27.45223   0.00000   3.18553
       7  26.20440   2.16130   3.18553
       7  24.95658   4.32261   3.18553
       7  23.70875   6.48391   3.18553
       7  22.46092   8.64521   3.18553
       7  21.21309  10.80651   3.18553
       7  19.96526  12.96782   3.18553
       7  18.71743  15.12912   3.18553
       7  17.46960  17.29042   3.18553
       7  16.22178  19.45173   3.18553
       7  14.97395  21.61303   3.18553
       7  13.72612  23.77433   3.18553
       7  12.47829  25.93564   3.18553
       7  29.94789   0.00000   3.18553
       7  28.70006   2.16130   3.18553
       7  27.45223   4.32261   3.18553
       7  26.20440   6.48391   3.18553
       7  24.95658   8.64521   3.18553
       7  23.70875  10.80651   3.18553
       7  22.46092  12.96782   3.18553
       7  21.21309  15.12912   3.18553
       7  19.96526  17.29042   3.18553
       7  18.71743  19.45173   3.18553
       7  17.46960  21.61303   3.18553
       7  16.22178  23.77433   3.18553
       7  14.97395  25.93564   3.18553
   BEGIN_BLOCK_DATAGRID_3D
   Generated with YPP  4   0   2
   BEGIN_DATAGRID_3D
    118  118   22
    0.00      0.00      0.00    
    32.4     0.746E-18  0.00    
   -16.22178  28.09694   0.00000
    0.000000  0.000000  6.371057
   0.101E-11
   0.428E-11
   0.106E-10
   0.191E-10
   0.310E-10
   0.423E-10
   0.563E-10
   0.703E-10
   0.841E-10
   0.983E-10
   0.111E-09
   0.124E-09
   0.136E-09
   0.149E-09
   0.159E-09
   0.170E-09
   0.179E-09
   0.186E-09
   0.192E-09
   0.193E-09
   0.193E-09
   0.189E-09
   0.184E-09
   0.178E-09
   0.170E-09
   0.165E-09
   0.161E-09
   0.161E-09
   0.161E-09
   0.166E-09
   0.171E-09
   0.179E-09
   0.185E-09
   0.190E-09
   0.194E-09
   0.194E-09
   0.193E-09
   0.187E-09
   0.180E-09
   0.170E-09
   0.160E-09
   0.150E-09
   0.136E-09
   0.124E-09
   0.111E-09
   0.985E-10
   0.843E-10
   0.703E-10
   0.564E-10
   0.423E-10
   0.310E-10
   0.192E-10
   0.107E-10
   0.429E-11
   0.101E-11
   0.729E-12
   0.334E-11
   0.831E-11
   0.159E-10
   0.238E-10
   0.338E-10
   0.440E-10
   0.547E-10
   0.659E-10
   0.761E-10
   0.868E-10
   0.964E-10
   0.107E-09
   0.115E-09
   0.123E-09
   0.131E-09
   0.138E-09
   0.145E-09
   0.150E-09
   0.155E-09
   0.160E-09
   0.165E-09
   0.170E-09
   0.173E-09
   0.176E-09
   0.178E-09
   0.180E-09
   0.178E-09
   0.176E-09
   0.172E-09
   0.169E-09
   0.164E-09
   0.159E-09
   0.154E-09
   0.149E-09
   0.144E-09
   0.137E-09
   0.130E-09
   0.122E-09
   0.115E-09
   0.106E-09
   0.960E-10
   0.864E-10
   0.758E-10
   0.657E-10
   0.546E-10
   0.439E-10
   0.338E-10
   0.238E-10
   0.159E-10
   0.832E-11
   0.336E-11
   0.737E-12
   0.101E-11
   0.428E-11
   0.106E-10
   0.191E-10
   0.310E-10
   0.423E-10
   0.563E-10
   0.703E-10
   0.841E-10
   0.101E-11
   0.703E-12
   0.374E-11
   0.992E-11
   0.180E-10
   0.293E-10
   0.417E-10
   0.546E-10
   0.699E-10
   0.831E-10
   0.972E-10
   0.111E-09
   0.124E-09
   0.136E-09
   0.148E-09
   0.159E-09
   0.168E-09
   0.178E-09
   0.185E-09
   0.190E-09
   0.194E-09
   0.195E-09
   0.194E-09
   0.189E-09
   0.185E-09
   0.178E-09
   0.172E-09
   0.168E-09
   0.165E-09
   0.166E-09
   0.169E-09
   0.173E-09
   0.178E-09
   0.186E-09
   0.189E-09
   0.194E-09
   0.196E-09
   0.194E-09
   0.191E-09
   0.186E-09
   0.179E-09
   0.169E-09
   0.160E-09
   0.148E-09
   0.136E-09
   0.125E-09
   0.111E-09
   0.975E-10
   0.833E-10
   0.701E-10
   0.547E-10
   0.418E-10
   0.293E-10
   0.180E-10
   0.996E-11
   0.377E-11
   0.715E-12
   0.541E-12
   0.266E-11
   0.739E-11
   0.137E-10
   0.208E-10
   0.298E-10
   0.384E-10
   0.484E-10
   0.584E-10
   0.688E-10
   0.786E-10
   0.889E-10
   0.995E-10
   0.108E-09
   0.118E-09
   0.127E-09
   0.135E-09
   0.143E-09
   0.151E-09
   0.159E-09
   0.166E-09
   0.174E-09
   0.178E-09
   0.184E-09
   0.188E-09
   0.188E-09
   0.188E-09
   0.187E-09
   0.184E-09
   0.178E-09
   0.173E-09
   0.165E-09
   0.158E-09
   0.151E-09
   0.143E-09
   0.134E-09
   0.126E-09
   0.117E-09
   0.108E-09
   0.990E-10
   0.885E-10
   0.783E-10
   0.685E-10
   0.582E-10
   0.482E-10
   0.383E-10
   0.298E-10
   0.208E-10
   0.137E-10
   0.742E-11
   0.269E-11
   0.548E-12
   0.703E-12
   0.374E-11
   0.992E-11
   0.180E-10
   0.293E-10
   0.417E-10
   0.546E-10
   0.699E-10
   0.831E-10
   0.703E-12
   0.330E-11
   0.641E-11
   0.119E-10
   0.196E-10
   0.297E-10
   0.423E-10
   0.547E-10
   0.691E-10
   0.832E-10
   0.964E-10
   0.109E-09
   0.122E-09
   0.134E-09
   0.143E-09
   0.154E-09
   0.163E-09
   0.172E-09
   0.180E-09
   0.185E-09
   0.188E-09
   0.190E-09
   0.191E-09
   0.187E-09
   0.183E-09
   0.178E-09
   0.172E-09
   0.170E-09
   0.166E-09
   0.164E-09
   0.166E-09
   0.170E-09
   0.173E-09
   0.179E-09
   0.184E-09
   0.188E-09
   0.192E-09
   0.191E-09
   0.188E-09
   0.185E-09
   0.181E-09
   0.172E-09
   0.164E-09
   0.155E-09
   0.144E-09
   0.134E-09
   0.122E-09
   0.110E-09
   0.967E-10
   0.835E-10
   0.693E-10
   0.549E-10
   0.424E-10
   0.298E-10
   0.197E-10
   0.119E-10
   0.645E-11
   0.332E-11
   0.266E-11
   0.426E-11
   0.791E-11
   0.125E-10
   0.187E-10
   0.258E-10
   0.330E-10
   0.409E-10
   0.501E-10
   0.598E-10
   0.686E-10
   0.789E-10
   0.887E-10
   0.986E-10
   0.110E-09
   0.119E-09
   0.128E-09
   0.139E-09
   0.149E-09
   0.157E-09
   0.166E-09
   0.174E-09
   0.181E-09
   0.187E-09
   0.190E-09
   0.191E-09
   0.190E-09
   0.187E-09
   0.180E-09
   0.173E-09
   0.165E-09
   0.157E-09
   0.149E-09
   0.138E-09
   0.128E-09
   0.119E-09
   0.109E-09
   0.981E-10
   0.883E-10
   0.786E-10
   0.683E-10
   0.596E-10
   0.499E-10
   0.408E-10
   0.329E-10
   0.258E-10
   0.187E-10
   0.125E-10
   0.795E-11
   0.429E-11
   0.267E-11
   0.330E-11
   0.641E-11
   0.119E-10
   0.196E-10
   0.297E-10
   0.423E-10
   0.547E-10
   0.691E-10
   0.832E-10
   0.330E-11
   0.827E-11
   0.114E-10
   0.165E-10
   0.239E-10
   0.337E-10
   0.447E-10
   0.568E-10
   0.699E-10
   0.825E-10
   0.955E-10
   0.108E-09
   0.119E-09
   0.128E-09
   0.137E-09
   0.146E-09
   0.154E-09
   0.161E-09
   0.167E-09
   0.173E-09
   0.179E-09
   0.181E-09
   0.179E-09
   0.177E-09
   0.174E-09
   0.170E-09
   0.165E-09
   0.161E-09
   0.159E-09
   0.160E-09
   0.160E-09
   0.160E-09
   0.162E-09
   0.166E-09
   0.171E-09
   0.174E-09
   0.178E-09
   0.180E-09
   0.182E-09
   0.180E-09
   0.174E-09
   0.168E-09
   0.162E-09
   0.155E-09
   0.146E-09
   0.138E-09
   0.129E-09
   0.119E-09
   0.109E-09
   0.959E-10
   0.829E-10
   0.701E-10
   0.570E-10
   0.448E-10
   0.338E-10
   0.240E-10
   0.166E-10
   0.115E-10
   0.828E-11
   0.738E-11
   0.790E-11
   0.959E-11
   0.126E-10
   0.165E-10
   0.215E-10
   0.275E-10
   0.338E-10
   0.408E-10
   0.484E-10
   0.568E-10
   0.664E-10
   0.760E-10
   0.861E-10
   0.974E-10
   0.109E-09
   0.120E-09
   0.130E-09
   0.141E-09
   0.151E-09
   0.161E-09
   0.170E-09
   0.176E-09
   0.181E-09
   0.185E-09
   0.185E-09
   0.181E-09
   0.176E-09
   0.169E-09
   0.160E-09
   0.150E-09
   0.140E-09
   0.130E-09
   0.120E-09
   0.109E-09
   0.970E-10
   0.857E-10
   0.756E-10
   0.661E-10
   0.566E-10
   0.483E-10
   0.406E-10
   0.337E-10
   0.275E-10
   0.215E-10
   0.166E-10
   0.127E-10
   0.964E-11
   0.795E-11
   0.740E-11
   0.827E-11
   0.114E-10
   0.165E-10
   0.239E-10
   0.337E-10
   0.447E-10
   0.568E-10
   0.699E-10
   0.825E-10
   0.827E-11
   0.159E-10
   0.191E-10
   0.238E-10
   0.310E-10
   0.399E-10
   0.496E-10
   0.601E-10
   0.725E-10
   0.842E-10
   0.943E-10
   0.105E-09
   0.115E-09
   0.123E-09
   0.131E-09
   0.139E-09
   0.144E-09
   0.151E-09
   0.156E-09
   0.157E-09
   0.161E-09
   0.165E-09
   0.164E-09
   0.162E-09
   0.162E-09
   0.158E-09
   0.154E-09
   0.151E-09
   0.145E-09
   0.144E-09
   0.145E-09
   0.144E-09
   0.146E-09
   0.151E-09
   0.155E-09
   0.159E-09
   0.163E-09
   0.163E-09
   0.165E-09
   0.165E-09
   0.162E-09
   0.158E-09
   0.156E-09
   0.151E-09
   0.145E-09
   0.139E-09
   0.132E-09
   0.124E-09
   0.115E-09
   0.105E-09
   0.947E-10
   0.845E-10
   0.728E-10
   0.603E-10
   0.498E-10
   0.401E-10
   0.311E-10
   0.238E-10
   0.191E-10
   0.159E-10
   0.136E-10
   0.125E-10
   0.126E-10
   0.137E-10
   0.151E-10
   0.177E-10
   0.214E-10
   0.256E-10
   0.312E-10
   0.382E-10
   0.456E-10
   0.546E-10
   0.641E-10
   0.732E-10
   0.841E-10
   0.964E-10
   0.107E-09
   0.119E-09
   0.132E-09
   0.142E-09
   0.152E-09
   0.161E-09
   0.166E-09
   0.170E-09
   0.172E-09
   0.170E-09
   0.166E-09
   0.161E-09
   0.152E-09
   0.141E-09
   0.131E-09
   0.118E-09
   0.107E-09
   0.960E-10
   0.837E-10
   0.728E-10
   0.638E-10
   0.543E-10
   0.454E-10
   0.381E-10
   0.311E-10
   0.256E-10
   0.214E-10
   0.177E-10
   0.152E-10
   0.138E-10
   0.127E-10
   0.125E-10
   0.137E-10
   0.159E-10
   0.191E-10
   0.238E-10
   0.310E-10
   0.399E-10
   0.496E-10
   0.601E-10
   0.725E-10
   0.842E-10
   0.159E-10
   0.238E-10
   0.281E-10
   0.331E-10
   0.397E-10
   0.474E-10
   0.553E-10
   0.647E-10
   0.748E-10
   0.852E-10
   0.951E-10
   0.103E-09
   0.110E-09
   0.118E-09
   0.124E-09
   0.129E-09
   0.132E-09
   0.135E-09
   0.140E-09
   0.144E-09
   0.145E-09
   0.145E-09
   0.146E-09
   0.146E-09
   0.145E-09
   0.140E-09
   0.135E-09
   0.133E-09
   0.131E-09
   0.128E-09
   0.125E-09
   0.125E-09
   0.128E-09
   0.131E-09
   0.133E-09
   0.135E-09
   0.141E-09
   0.145E-09
   0.147E-09
   0.147E-09
   0.146E-09
   0.146E-09
   0.145E-09
   0.141E-09
   0.136E-09
   0.133E-09
   0.130E-09
   0.125E-09
   0.118E-09
   0.111E-09
   0.104E-09
   0.955E-10
   0.855E-10
   0.751E-10
   0.650E-10
   0.555E-10
   0.475E-10
   0.398E-10
   0.331E-10
   0.281E-10
   0.238E-10
   0.207E-10
   0.187E-10
   0.165E-10
   0.151E-10
   0.146E-10
   0.148E-10
   0.162E-10
   0.190E-10
   0.230E-10
   0.280E-10
   0.340E-10
   0.424E-10
   0.519E-10
   0.614E-10
   0.713E-10
   0.832E-10
   0.958E-10
   0.108E-09
   0.119E-09
   0.128E-09
   0.138E-09
   0.147E-09
   0.152E-09
   0.154E-09
   0.154E-09
   0.152E-09
   0.147E-09
   0.138E-09
   0.128E-09
   0.118E-09
   0.107E-09
   0.953E-10
   0.829E-10
   0.710E-10
   0.611E-10
   0.517E-10
   0.422E-10
   0.339E-10
   0.279E-10
   0.230E-10
   0.190E-10
   0.162E-10
   0.148E-10
   0.147E-10
   0.152E-10
   0.166E-10
   0.187E-10
   0.208E-10
   0.238E-10
   0.281E-10
   0.331E-10
   0.397E-10
   0.474E-10
   0.553E-10
   0.647E-10
   0.748E-10
   0.852E-10
   0.238E-10
   0.338E-10
   0.379E-10
   0.428E-10
   0.489E-10
   0.554E-10
   0.623E-10
   0.703E-10
   0.791E-10
   0.862E-10
   0.932E-10
   0.101E-09
   0.106E-09
   0.110E-09
   0.115E-09
   0.117E-09
   0.118E-09
   0.120E-09
   0.121E-09
   0.122E-09
   0.125E-09
   0.126E-09
   0.124E-09
   0.125E-09
   0.122E-09
   0.117E-09
   0.114E-09
   0.110E-09
   0.106E-09
   0.105E-09
   0.103E-09
   0.101E-09
   0.104E-09
   0.105E-09
   0.106E-09
   0.110E-09
   0.114E-09
   0.118E-09
   0.123E-09
   0.125E-09
   0.125E-09
   0.126E-09
   0.126E-09
   0.123E-09
   0.122E-09
   0.121E-09
   0.118E-09
   0.117E-09
   0.115E-09
   0.111E-09
   0.106E-09
   0.101E-09
   0.936E-10
   0.865E-10
   0.794E-10
   0.705E-10
   0.625E-10
   0.556E-10
   0.490E-10
   0.428E-10
   0.379E-10
   0.338E-10
   0.298E-10
   0.258E-10
   0.215E-10
   0.177E-10
   0.148E-10
   0.128E-10
   0.122E-10
   0.129E-10
   0.148E-10
   0.186E-10
   0.237E-10
   0.305E-10
   0.394E-10
   0.489E-10
   0.586E-10
   0.706E-10
   0.818E-10
   0.922E-10
   0.104E-09
   0.113E-09
   0.121E-09
   0.128E-09
   0.132E-09
   0.133E-09
   0.132E-09
   0.128E-09
   0.121E-09
   0.113E-09
   0.103E-09
   0.919E-10
   0.814E-10
   0.703E-10
   0.583E-10
   0.487E-10
   0.392E-10
   0.303E-10
   0.236E-10
   0.186E-10
   0.148E-10
   0.129E-10
   0.123E-10
   0.129E-10
   0.149E-10
   0.178E-10
   0.216E-10
   0.259E-10
   0.299E-10
   0.338E-10
   0.379E-10
   0.428E-10
   0.489E-10
   0.554E-10
   0.623E-10
   0.703E-10
   0.791E-10
   0.862E-10
   0.338E-10
   0.441E-10
   0.497E-10
   0.539E-10
   0.592E-10
   0.644E-10
   0.701E-10
   0.762E-10
   0.825E-10
   0.883E-10
   0.926E-10
   0.963E-10
   0.990E-10
   0.101E-09
   0.102E-09
   0.103E-09
   0.103E-09
   0.104E-09
   0.105E-09
   0.103E-09
   0.101E-09
   0.101E-09
   0.100E-09
   0.988E-10
   0.978E-10
   0.945E-10
   0.918E-10
   0.890E-10
   0.835E-10
   0.778E-10
   0.754E-10
   0.733E-10
   0.733E-10
   0.755E-10
   0.780E-10
   0.837E-10
   0.893E-10
   0.921E-10
   0.948E-10
   0.981E-10
   0.992E-10
   0.101E-09
   0.102E-09
   0.102E-09
   0.103E-09
   0.105E-09
   0.104E-09
   0.103E-09
   0.103E-09
   0.102E-09
   0.101E-09
   0.994E-10
   0.966E-10
   0.929E-10
   0.885E-10
   0.828E-10
   0.764E-10
   0.703E-10
   0.646E-10
   0.593E-10
   0.540E-10
   0.497E-10
   0.441E-10
   0.384E-10
   0.330E-10
   0.276E-10
   0.214E-10
   0.162E-10
   0.122E-10
   0.928E-11
   0.810E-11
   0.887E-11
   0.114E-10
   0.154E-10
   0.206E-10
   0.279E-10
   0.366E-10
   0.458E-10
   0.567E-10
   0.673E-10
   0.783E-10
   0.888E-10
   0.968E-10
   0.103E-09
   0.107E-09
   0.110E-09
   0.110E-09
   0.107E-09
   0.103E-09
   0.966E-10
   0.886E-10
   0.780E-10
   0.671E-10
   0.565E-10
   0.456E-10
   0.364E-10
   0.278E-10
   0.205E-10
   0.153E-10
   0.114E-10
   0.887E-11
   0.813E-11
   0.933E-11
   0.123E-10
   0.163E-10
   0.215E-10
   0.277E-10
   0.331E-10
   0.385E-10
   0.441E-10
   0.497E-10
   0.539E-10
   0.592E-10
   0.644E-10
   0.701E-10
   0.762E-10
   0.825E-10
   0.883E-10
   0.441E-10
   0.548E-10
   0.603E-10
   0.650E-10
   0.693E-10
   0.735E-10
   0.771E-10
   0.816E-10
   0.848E-10
   0.877E-10
   0.902E-10
   0.925E-10
   0.926E-10
   0.919E-10
   0.906E-10
   0.889E-10
   0.875E-10
   0.854E-10
   0.826E-10
   0.812E-10
   0.811E-10
   0.797E-10
   0.785E-10
   0.769E-10
   0.751E-10
   0.733E-10
   0.696E-10
   0.643E-10
   0.595E-10
   0.559E-10
   0.517E-10
   0.486E-10
   0.477E-10
   0.487E-10
   0.518E-10
   0.560E-10
   0.597E-10
   0.645E-10
   0.698E-10
   0.735E-10
   0.753E-10
   0.771E-10
   0.788E-10
   0.799E-10
   0.814E-10
   0.816E-10
   0.830E-10
   0.858E-10
   0.878E-10
   0.893E-10
   0.910E-10
   0.922E-10
   0.929E-10
   0.928E-10
   0.904E-10
   0.879E-10
   0.850E-10
   0.817E-10
   0.773E-10
   0.736E-10
   0.693E-10
   0.650E-10
   0.603E-10
   0.548E-10
   0.484E-10
   0.409E-10
   0.338E-10
   0.257E-10
   0.190E-10
   0.129E-10
   0.811E-11
   0.547E-11
   0.448E-11
   0.547E-11
   0.859E-11
   0.130E-10
   0.194E-10
   0.269E-10
   0.353E-10
   0.455E-10
   0.547E-10
   0.636E-10
   0.718E-10
   0.795E-10
   0.843E-10
   0.871E-10
   0.888E-10
   0.871E-10
   0.842E-10
   0.794E-10
   0.717E-10
   0.635E-10
   0.545E-10
   0.453E-10
   0.352E-10
   0.268E-10
   0.193E-10
   0.129E-10
   0.856E-11
   0.546E-11
   0.449E-11
   0.551E-11
   0.816E-11
   0.130E-10
   0.191E-10
   0.258E-10
   0.339E-10
   0.410E-10
   0.485E-10
   0.548E-10
   0.603E-10
   0.650E-10
   0.693E-10
   0.735E-10
   0.771E-10
   0.816E-10
   0.848E-10
   0.877E-10
   0.548E-10
   0.661E-10
   0.713E-10
   0.756E-10
   0.786E-10
   0.815E-10
   0.831E-10
   0.848E-10
   0.861E-10
   0.869E-10
   0.873E-10
   0.856E-10
   0.833E-10
   0.803E-10
   0.771E-10
   0.730E-10
   0.689E-10
   0.652E-10
   0.622E-10
   0.602E-10
   0.580E-10
   0.566E-10
   0.560E-10
   0.555E-10
   0.541E-10
   0.522E-10
   0.491E-10
   0.450E-10
   0.404E-10
   0.349E-10
   0.303E-10
   0.265E-10
   0.247E-10
   0.247E-10
   0.265E-10
   0.303E-10
   0.349E-10
   0.404E-10
   0.450E-10
   0.491E-10
   0.522E-10
   0.542E-10
   0.556E-10
   0.561E-10
   0.568E-10
   0.582E-10
   0.604E-10
   0.624E-10
   0.655E-10
   0.692E-10
   0.733E-10
   0.773E-10
   0.806E-10
   0.835E-10
   0.859E-10
   0.875E-10
   0.870E-10
   0.862E-10
   0.849E-10
   0.831E-10
   0.816E-10
   0.787E-10